/*--------------------------------*- C++ -*----------------------------------*\
| =========                 |                                                 |
| \\      /  F ield         | OpenFOAM: The Open Source CFD Toolbox           |
|  \\    /   O peration     | Version:  2312                                  |
|   \\  /    A nd           | Website:  www.openfoam.com                      |
|    \\/     M anipulation  |                                                 |
\*---------------------------------------------------------------------------*/
FoamFile
{
    version     2.0;
    format      ascii;
    arch        "LSB;label=32;scalar=64";
    class       volScalarField;
    location    "0";
    object      yPlus;
}
// * * * * * * * * * * * * * * * * * * * * * * * * * * * * * * * * * * * * * //

dimensions      [0 0 0 0 0 0 0];

internalField   uniform 0;

boundaryField
{
    inlet
    {
        type            calculated;
        value           uniform 0;
    }
    outlet
    {
        type            calculated;
        value           uniform 0;
    }
    walls
    {
        type            calculated;
        value           nonuniform List<scalar> 
16766
(
25.7282
43.1866
43.1866
43.1866
43.1866
43.1866
43.1866
43.1866
43.1866
43.1866
43.1866
43.1866
43.1866
43.1867
43.1871
43.1878
43.1882
43.1885
43.1893
43.1901
43.1909
43.1924
43.1939
43.1967
43.2002
43.2067
43.2119
43.215
43.2168
43.2178
43.219
43.22
43.2211
43.2224
43.2233
43.2245
43.2255
43.2268
43.228
43.2289
43.2296
43.2311
43.2323
43.2405
25.6341
25.7693
43.1173
43.1173
43.1173
43.1173
43.1173
43.1173
43.1173
43.1173
43.1173
43.1173
43.1173
43.1176
43.1179
43.1185
43.1194
43.12
43.121
43.1222
43.1236
43.1255
43.1293
43.1351
43.1426
43.1483
43.158
43.163
43.1643
43.1662
43.1679
43.1698
43.1714
43.1732
43.1756
43.1769
43.1788
43.1805
43.1828
43.1844
43.186
43.1874
43.1897
43.1916
43.2035
25.6147
25.7766
43.1057
43.1056
43.1056
43.1056
43.1056
43.1056
43.1056
43.1056
43.1056
43.1056
43.1057
43.1061
43.1066
43.1074
43.1081
43.1087
43.1101
43.1116
43.1135
43.1174
43.125
43.1355
43.1443
43.148
43.1529
43.1552
43.1567
43.1588
43.1609
43.1628
43.1643
43.1667
43.1691
43.1711
43.173
43.175
43.1769
43.1789
43.181
43.1822
43.1849
43.1868
43.1991
25.6139
25.7812
43.0982
43.0986
43.0986
43.0986
43.0986
43.0986
43.0986
43.0986
43.0986
43.0986
43.0985
43.0984
43.099
43.0999
43.1004
43.1013
43.103
43.1052
43.1089
43.1171
43.1288
43.1386
43.1443
43.1462
43.1481
43.1503
43.1525
43.1543
43.1567
43.1584
43.1602
43.1633
43.1653
43.1677
43.1696
43.172
43.1739
43.1763
43.1784
43.1796
43.1825
43.1843
43.1972
25.6129
25.7856
43.0907
43.0909
43.0909
43.0909
43.0909
43.0909
43.0909
43.0909
43.0909
43.0909
43.091
43.0911
43.0917
43.0925
43.0934
43.0946
43.0963
43.1001
43.1092
43.1207
43.132
43.1374
43.14
43.1418
43.1437
43.1461
43.1483
43.1508
43.1529
43.155
43.157
43.1598
43.1623
43.1649
43.1674
43.1698
43.172
43.1744
43.1767
43.1777
43.1802
43.1826
43.1959
25.6122
25.7904
43.0826
43.0827
43.0827
43.0827
43.0827
43.0827
43.0827
43.0827
43.0827
43.0827
43.0826
43.0826
43.0833
43.0845
43.0856
43.0872
43.0896
43.0969
43.112
43.1216
43.1297
43.1323
43.1344
43.1364
43.1389
43.1413
43.1436
43.1464
43.1488
43.1511
43.1531
43.1562
43.1592
43.1618
43.1643
43.1664
43.169
43.1716
43.1741
43.1759
43.1782
43.1807
43.1939
25.6112
25.7954
43.0747
43.0746
43.0746
43.0746
43.0746
43.0746
43.0746
43.0746
43.0746
43.0747
43.0748
43.0747
43.0753
43.0766
43.078
43.0801
43.0847
43.0964
43.113
43.1199
43.1252
43.1269
43.1293
43.1318
43.1345
43.1367
43.1396
43.1425
43.1453
43.148
43.1502
43.1535
43.1561
43.1588
43.1614
43.1637
43.1667
43.1697
43.172
43.1742
43.1767
43.1792
43.1925
25.611
25.8002
43.0661
43.0665
43.0665
43.0665
43.0665
43.0665
43.0665
43.0665
43.0665
43.0664
43.0663
43.0664
43.067
43.0681
43.0701
43.0738
43.0826
43.0981
43.112
43.1166
43.1191
43.1209
43.1238
43.1265
43.1296
43.1321
43.135
43.1381
43.1414
43.1441
43.1467
43.1502
43.1526
43.1557
43.1587
43.1614
43.1642
43.1671
43.1695
43.1715
43.1742
43.1769
43.1905
25.6105
25.8053
43.0576
43.0581
43.0584
43.0584
43.0584
43.0584
43.0584
43.0584
43.0584
43.0584
43.0585
43.0585
43.059
43.0605
43.0627
43.0684
43.0819
43.0986
43.1077
43.1109
43.1132
43.1158
43.119
43.1219
43.1252
43.1279
43.1312
43.1345
43.1381
43.1407
43.1437
43.1471
43.1502
43.1532
43.1563
43.1592
43.1622
43.1648
43.1676
43.17
43.1726
43.1752
43.1892
25.6097
25.81
43.049
43.0497
43.0502
43.0502
43.0502
43.0502
43.0502
43.0502
43.0502
43.0502
43.0501
43.0501
43.0508
43.0527
43.0565
43.0661
43.0831
43.0973
43.1032
43.1058
43.1077
43.1104
43.1139
43.1174
43.1206
43.1236
43.1274
43.1305
43.1343
43.1374
43.1406
43.1442
43.1477
43.1502
43.1538
43.1568
43.1599
43.1627
43.1658
43.168
43.1708
43.1736
43.1879
25.6088
25.8148
43.0417
43.042
43.0423
43.0423
43.0423
43.0423
43.0423
43.0423
43.0423
43.0423
43.0423
43.0426
43.0435
43.0457
43.052
43.0662
43.084
43.0938
43.0977
43.1004
43.1028
43.1058
43.1093
43.1129
43.1166
43.1205
43.1242
43.1275
43.1311
43.1344
43.138
43.142
43.1453
43.148
43.1516
43.1551
43.1584
43.1612
43.1642
43.1665
43.1697
43.1728
43.187
25.6084
25.8194
43.0344
43.0347
43.0347
43.0347
43.0347
43.0346
43.0346
43.0347
43.0347
43.0346
43.0347
43.0353
43.0364
43.0402
43.0505
43.0686
43.0841
43.09
43.0925
43.0953
43.0984
43.1013
43.105
43.1085
43.1126
43.1167
43.1203
43.1241
43.1281
43.1314
43.1352
43.1396
43.143
43.146
43.1496
43.1531
43.1565
43.1591
43.1627
43.1652
43.1684
43.1711
43.1854
25.608
25.8234
43.0276
43.0279
43.0279
43.0279
43.0279
43.0279
43.0279
43.0279
43.0279
43.0279
43.0282
43.029
43.03
43.0354
43.0495
43.07
43.0811
43.0846
43.0874
43.0908
43.0943
43.0976
43.1018
43.1054
43.1097
43.1138
43.1176
43.1217
43.1257
43.1294
43.1333
43.1374
43.1411
43.1444
43.1481
43.1514
43.1549
43.1578
43.1616
43.1642
43.1673
43.1702
43.1847
25.6076
25.8268
43.0217
43.022
43.0223
43.0223
43.0223
43.0223
43.0223
43.0223
43.0223
43.0223
43.0226
43.0233
43.0245
43.0301
43.0458
43.0672
43.0768
43.0803
43.0835
43.0869
43.0905
43.0943
43.0987
43.1026
43.1067
43.1113
43.1153
43.1192
43.1238
43.1277
43.1313
43.1354
43.1394
43.1427
43.1462
43.1497
43.1535
43.1567
43.1605
43.1629
43.1662
43.1692
43.1838
25.6076
25.8294
43.0173
43.0176
43.0179
43.0179
43.0179
43.0179
43.0179
43.0179
43.0179
43.0179
43.0182
43.0191
43.0206
43.0267
43.0444
43.0643
43.0735
43.0771
43.0805
43.084
43.0881
43.0918
43.0962
43.1004
43.1048
43.1092
43.1134
43.1175
43.1222
43.1262
43.1297
43.1341
43.1382
43.1417
43.1454
43.1492
43.1529
43.1561
43.1593
43.1621
43.1653
43.1684
43.1833
25.6072
25.8318
43.0131
43.0131
43.0131
43.0131
43.0131
43.0131
43.0131
43.0131
43.0131
43.0131
43.0137
43.0149
43.017
43.0266
43.05
43.066
43.0725
43.0749
43.0781
43.082
43.086
43.0898
43.094
43.0986
43.1033
43.1076
43.112
43.1163
43.1204
43.1249
43.1286
43.1328
43.137
43.1408
43.1449
43.1488
43.1521
43.1554
43.1586
43.1615
43.1647
43.168
43.1828
25.6064
25.84
42.9958
42.9952
42.9952
42.9952
42.9952
42.9952
42.9952
42.9952
42.9952
42.9952
42.9958
42.9969
43.0003
43.0139
43.0459
43.0603
43.067
43.0703
43.0736
43.0777
43.082
43.0857
43.09
43.0946
43.0992
43.1041
43.1083
43.1129
43.1174
43.1218
43.1257
43.1302
43.1341
43.1381
43.1423
43.146
43.1492
43.1528
43.1566
43.1591
43.1627
43.1659
43.18
25.6045
25.8602
43.0175
43.0343
43.0375
43.0375
43.0375
43.0375
43.0375
43.0375
43.0378
43.0381
43.0384
43.0391
43.0425
43.0564
43.088
43.1001
43.1042
43.1068
43.1095
43.1132
43.1168
43.1201
43.1238
43.1273
43.1311
43.1352
43.139
43.1428
43.147
43.1502
43.1535
43.1577
43.1609
43.164
43.1675
43.1706
43.1735
43.1767
43.1796
43.1821
43.185
43.1875
43.1966
25.6068
25.8416
42.9884
42.9957
42.9969
42.9969
42.9969
42.9969
42.9969
42.9969
42.9972
42.9975
42.9975
42.998
43.0008
43.0123
43.0401
43.0619
43.0693
43.0729
43.0759
43.0803
43.0843
43.0883
43.0928
43.0971
43.1011
43.106
43.1105
43.1151
43.1195
43.1233
43.1273
43.132
43.1361
43.1396
43.1436
43.1475
43.1513
43.1545
43.1577
43.1607
43.1643
43.1674
43.1817
25.6054
25.8364
43.013
43.0153
43.0155
43.0154
43.0154
43.0154
43.0154
43.0154
43.0154
43.0154
43.0154
43.016
43.0181
43.0252
43.0443
43.0671
43.0747
43.0783
43.0813
43.0851
43.0889
43.0927
43.097
43.1014
43.1056
43.1102
43.1146
43.1191
43.123
43.127
43.1309
43.1353
43.1393
43.1428
43.1466
43.1505
43.154
43.1572
43.1603
43.1632
43.1667
43.17
43.1844
25.6078
25.828
43.0197
43.0196
43.0196
43.0196
43.0196
43.0196
43.0196
43.0197
43.0197
43.0199
43.0202
43.0208
43.0226
43.028
43.0447
43.0674
43.0767
43.0807
43.084
43.0874
43.0909
43.0947
43.0989
43.103
43.1076
43.1118
43.1163
43.1202
43.1243
43.1285
43.1323
43.1367
43.1405
43.144
43.1476
43.1511
43.1544
43.1582
43.1613
43.1638
43.1674
43.1707
43.185
25.6081
25.8244
43.0243
43.024
43.024
43.024
43.024
43.024
43.024
43.024
43.024
43.0243
43.0249
43.0256
43.0268
43.0323
43.0482
43.0703
43.0801
43.0839
43.087
43.0902
43.0937
43.0973
43.1014
43.1055
43.1097
43.1138
43.1179
43.1219
43.1261
43.1302
43.1339
43.138
43.1415
43.145
43.1489
43.152
43.1557
43.1592
43.1622
43.1647
43.1682
43.1713
43.1856
25.6085
25.8208
43.0302
43.0302
43.0302
43.0302
43.0302
43.0302
43.0302
43.0302
43.0302
43.0302
43.0305
43.0313
43.0323
43.0376
43.0522
43.073
43.0839
43.0877
43.0907
43.0935
43.097
43.1005
43.1045
43.1088
43.1126
43.1164
43.1202
43.1242
43.128
43.1318
43.1356
43.1397
43.1434
43.1467
43.1504
43.1536
43.1569
43.1601
43.1633
43.1659
43.169
43.1716
43.1865
25.6085
25.8168
43.0371
43.037
43.037
43.037
43.037
43.037
43.037
43.037
43.037
43.037
43.037
43.0376
43.0387
43.0421
43.0528
43.071
43.0863
43.0927
43.0952
43.0976
43.1011
43.1043
43.1084
43.1121
43.1156
43.1192
43.123
43.127
43.1303
43.134
43.1378
43.1421
43.1453
43.1485
43.1519
43.1555
43.1582
43.1613
43.1644
43.167
43.1702
43.1725
43.187
25.6088
25.8124
43.0442
43.0441
43.0441
43.0441
43.0441
43.0441
43.0441
43.0441
43.0443
43.0446
43.0446
43.0449
43.0458
43.0477
43.0539
43.0684
43.0865
43.0967
43.1002
43.1027
43.106
43.1091
43.1129
43.1161
43.1192
43.1226
43.1263
43.1297
43.1332
43.1372
43.1405
43.1447
43.1474
43.1506
43.1537
43.1572
43.16
43.1632
43.1661
43.1685
43.1716
43.1742
43.1884
25.6098
25.808
43.052
43.0514
43.0514
43.0514
43.0514
43.0514
43.0514
43.0514
43.0517
43.0523
43.0526
43.0526
43.0531
43.0548
43.0586
43.0684
43.0853
43.1001
43.106
43.1081
43.1106
43.1135
43.117
43.12
43.1232
43.1265
43.1301
43.1331
43.1367
43.1402
43.143
43.1467
43.1496
43.1528
43.1559
43.1588
43.1619
43.1648
43.1674
43.1696
43.1728
43.1759
43.1896
25.6101
25.8028
43.0604
43.0601
43.0601
43.0601
43.0601
43.0601
43.0601
43.0601
43.0601
43.0604
43.0607
43.0608
43.0615
43.0626
43.0649
43.0707
43.0839
43.101
43.1103
43.1141
43.1165
43.1186
43.1219
43.1246
43.1276
43.1309
43.1343
43.1368
43.1403
43.1435
43.1463
43.1494
43.1526
43.1557
43.1586
43.1614
43.1641
43.167
43.1697
43.1717
43.1747
43.1774
43.1911
25.6106
25.7979
43.0688
43.0687
43.0686
43.0686
43.0686
43.0686
43.0686
43.0686
43.0686
43.0687
43.0687
43.0686
43.0692
43.0703
43.0721
43.0758
43.0847
43.0996
43.1125
43.1192
43.1222
43.124
43.1269
43.1296
43.1319
43.1349
43.1381
43.1404
43.1437
43.1466
43.1492
43.1523
43.1551
43.158
43.161
43.1636
43.1659
43.1687
43.1713
43.1735
43.1766
43.1788
43.1922
25.6113
25.7926
43.0769
43.077
43.0771
43.0771
43.0771
43.0771
43.0771
43.0771
43.0771
43.077
43.077
43.077
43.0776
43.0789
43.0801
43.0818
43.0861
43.0956
43.1097
43.1223
43.1278
43.13
43.1323
43.1343
43.1367
43.1394
43.1424
43.1448
43.1476
43.1503
43.1527
43.1558
43.1584
43.1613
43.1637
43.1661
43.1685
43.1707
43.173
43.1754
43.1784
43.1806
43.1941
25.6123
25.7881
43.0851
43.0851
43.0851
43.0851
43.0851
43.0851
43.0851
43.0851
43.0851
43.0851
43.0851
43.0851
43.0856
43.0868
43.088
43.0892
43.0912
43.0963
43.1085
43.1237
43.1317
43.1349
43.137
43.139
43.1413
43.1438
43.1462
43.1488
43.1511
43.1535
43.1556
43.1585
43.1612
43.1637
43.1658
43.1683
43.1706
43.173
43.1755
43.1775
43.1799
43.1823
43.1955
25.6126
25.7832
43.093
43.0926
43.0926
43.0926
43.0926
43.0926
43.0926
43.0926
43.0926
43.0926
43.0926
43.093
43.0937
43.0946
43.0957
43.0969
43.0983
43.1013
43.1097
43.1233
43.1343
43.1401
43.1425
43.1439
43.1461
43.1484
43.1507
43.1528
43.155
43.1575
43.1595
43.162
43.1645
43.1666
43.1689
43.1716
43.1733
43.1753
43.1781
43.1798
43.1826
43.1847
43.1975
25.613
25.7789
43.1005
43.1004
43.1003
43.1001
43.1001
43.1001
43.1003
43.1004
43.1004
43.1004
43.1003
43.1004
43.101
43.1016
43.1025
43.1036
43.1048
43.1067
43.1107
43.1194
43.1307
43.1411
43.1466
43.1485
43.1506
43.1525
43.1548
43.1568
43.1587
43.161
43.1624
43.1652
43.1676
43.1698
43.1716
43.1741
43.1761
43.1778
43.1802
43.1819
43.1843
43.1862
43.199
25.6138
25.7741
43.1079
43.1079
43.108
43.1081
43.1081
43.1081
43.108
43.1079
43.1079
43.1079
43.108
43.1081
43.1086
43.1092
43.1098
43.111
43.1122
43.1133
43.1152
43.1193
43.1266
43.1375
43.1461
43.1501
43.155
43.1573
43.159
43.1612
43.1629
43.165
43.1662
43.1693
43.171
43.1728
43.1749
43.1768
43.1792
43.1808
43.1825
43.1848
43.1864
43.1885
43.201
25.6147
25.7706
43.1149
43.1148
43.1146
43.1146
43.1146
43.1146
43.1146
43.1146
43.1146
43.1148
43.1148
43.1146
43.115
43.1156
43.1165
43.1175
43.1183
43.1195
43.1207
43.1228
43.1263
43.1324
43.14
43.1459
43.1559
43.1614
43.1632
43.1648
43.1664
43.1684
43.1696
43.172
43.174
43.1756
43.1777
43.1793
43.1813
43.1832
43.1847
43.1864
43.1884
43.1904
43.2025
25.6155
25.7664
43.1216
43.1213
43.1214
43.1214
43.1214
43.1214
43.1214
43.1214
43.1214
43.1213
43.1213
43.1217
43.122
43.1223
43.1232
43.1241
43.1249
43.1258
43.1267
43.1284
43.1306
43.1326
43.1364
43.1419
43.1522
43.1613
43.1658
43.1685
43.1705
43.1721
43.1736
43.1755
43.1774
43.1789
43.1806
43.1821
43.184
43.1862
43.1876
43.1887
43.1909
43.1925
43.2042
25.6164
25.7627
43.128
43.1278
43.1278
43.1278
43.1278
43.1278
43.1278
43.1278
43.1278
43.1278
43.1278
43.128
43.1282
43.1286
43.1292
43.1299
43.1312
43.1319
43.1325
43.1339
43.1354
43.1368
43.1389
43.1418
43.1478
43.1552
43.1621
43.169
43.1723
43.1749
43.1767
43.1787
43.1802
43.1816
43.1832
43.185
43.1865
43.1883
43.1898
43.1908
43.1929
43.1946
43.2062
25.6172
25.759
43.1342
43.1342
43.1342
43.1342
43.1342
43.1342
43.1342
43.1342
43.1342
43.1342
43.1342
43.1343
43.1344
43.1349
43.1355
43.1361
43.1369
43.1375
43.1385
43.1396
43.1408
43.1422
43.1438
43.1452
43.1474
43.1508
43.1561
43.1632
43.1686
43.1757
43.179
43.1819
43.1835
43.1849
43.1863
43.1878
43.189
43.1908
43.1925
43.1931
43.1951
43.197
43.2082
25.6181
25.7559
43.1397
43.1394
43.1394
43.1394
43.1394
43.1394
43.1394
43.1394
43.1394
43.1394
43.1397
43.14
43.1399
43.1402
43.1409
43.1414
43.142
43.1426
43.1435
43.1446
43.1458
43.1469
43.1481
43.1493
43.1505
43.1524
43.1553
43.1589
43.1624
43.1697
43.1748
43.1813
43.1849
43.1872
43.1888
43.1902
43.1913
43.1928
43.1946
43.1956
43.1971
43.1984
43.2095
25.6188
25.7522
43.1451
43.1448
43.1448
43.1448
43.1448
43.1448
43.1448
43.1448
43.1448
43.1448
43.1451
43.1454
43.1454
43.1457
43.1463
43.1469
43.1476
43.1481
43.1486
43.1496
43.1508
43.152
43.1532
43.1543
43.1555
43.1566
43.1582
43.1601
43.1619
43.1656
43.169
43.1755
43.1809
43.1867
43.189
43.1914
43.1937
43.1953
43.1971
43.1978
43.1992
43.2004
43.2115
25.6198
25.749
43.1498
43.1498
43.1498
43.1498
43.1498
43.1498
43.1498
43.1498
43.1498
43.1498
43.1498
43.1498
43.1502
43.1508
43.151
43.1517
43.1523
43.1527
43.1534
43.154
43.1551
43.1563
43.1573
43.1582
43.1593
43.1605
43.1616
43.1628
43.1645
43.1668
43.1682
43.1716
43.1744
43.1801
43.1834
43.1874
43.1924
43.1949
43.1976
43.1999
43.2014
43.2026
43.2135
25.6207
25.7463
43.1551
43.1547
43.1547
43.1547
43.1547
43.1547
43.1547
43.1547
43.1547
43.1547
43.1547
43.1547
43.1553
43.156
43.156
43.1564
43.1571
43.1578
43.1584
43.159
43.1598
43.1607
43.1616
43.1624
43.1636
43.1647
43.1659
43.1671
43.1685
43.1701
43.1711
43.173
43.1741
43.1765
43.1787
43.1817
43.1866
43.19
43.1943
43.199
43.2006
43.2017
43.2141
25.6253
25.7435
43.1595
43.1593
43.1593
43.1593
43.1593
43.1593
43.1593
43.1593
43.1593
43.1593
43.1593
43.1593
43.1596
43.1602
43.1605
43.1608
43.1612
43.1618
43.1624
43.163
43.1637
43.1645
43.1654
43.1663
43.1674
43.1686
43.1699
43.1711
43.172
43.1729
43.174
43.1752
43.1763
43.1777
43.179
43.1803
43.1831
43.1855
43.1883
43.192
43.194
43.1961
43.2079
25.6501
25.7412
43.1642
43.1642
43.1642
43.1642
43.1642
43.1642
43.1642
43.1642
43.1642
43.1642
43.1642
43.1642
43.1642
43.1644
43.1649
43.1653
43.1656
43.1662
43.1669
43.1675
43.1679
43.1688
43.1697
43.1702
43.1712
43.1725
43.1735
43.1743
43.1749
43.1759
43.1771
43.1783
43.1794
43.1806
43.1818
43.1828
43.1843
43.1859
43.1875
43.1886
43.1901
43.1917
43.1929
25.7077
25.7387
43.168
43.168
43.168
43.168
43.168
43.168
43.168
43.168
43.168
43.168
43.168
43.168
43.1683
43.1686
43.1689
43.1692
43.1696
43.1701
43.1703
43.1709
43.1716
43.1722
43.1733
43.174
43.1745
43.1756
43.1766
43.1772
43.1781
43.1791
43.1803
43.1813
43.1821
43.1833
43.1844
43.1857
43.187
43.1881
43.1894
43.1903
43.1918
43.193
43.1943
25.721
25.7359
43.1723
43.1723
43.1723
43.1723
43.1723
43.1723
43.1723
43.1723
43.1723
43.1723
43.1723
43.1723
43.1726
43.173
43.173
43.1729
43.1734
43.1741
43.1744
43.175
43.1753
43.1759
43.177
43.1776
43.1783
43.179
43.1796
43.1806
43.1818
43.1826
43.1835
43.1844
43.1852
43.1861
43.187
43.1881
43.1894
43.1906
43.1918
43.193
43.1941
43.1949
43.1956
25.7216
25.7342
43.1762
43.1761
43.1761
43.1761
43.1761
43.1761
43.1761
43.1761
43.1761
43.1761
43.1761
43.1761
43.1761
43.1761
43.1762
43.1766
43.1771
43.1773
43.1777
43.1783
43.1785
43.1791
43.18
43.1806
43.1811
43.1818
43.1826
43.1835
43.1844
43.1853
43.1859
43.1868
43.1879
43.1888
43.1897
43.1907
43.1915
43.1925
43.1937
43.195
43.1959
43.1965
43.1974
25.7205
25.7317
43.1799
43.18
43.18
43.18
43.18
43.18
43.18
43.18
43.18
43.18
43.18
43.18
43.18
43.18
43.18
43.1802
43.1808
43.1812
43.1811
43.1816
43.1823
43.1829
43.1835
43.1841
43.1846
43.1852
43.1861
43.1867
43.1873
43.1882
43.1891
43.1896
43.1905
43.1918
43.1929
43.1933
43.194
43.1953
43.1964
43.1972
43.1977
43.1986
43.1999
25.719
25.7301
43.183
43.1827
43.1827
43.1827
43.1827
43.1827
43.1827
43.1827
43.1827
43.1827
43.1827
43.183
43.1833
43.1832
43.1831
43.1832
43.1836
43.184
43.1843
43.1847
43.1852
43.1858
43.1865
43.187
43.1876
43.1882
43.1889
43.1895
43.1899
43.1905
43.1914
43.1924
43.1929
43.1937
43.195
43.1956
43.1961
43.1972
43.1981
43.1988
43.1997
43.2007
43.2016
25.7181
25.7277
43.1861
43.1857
43.1856
43.1856
43.1856
43.1856
43.1856
43.1856
43.1856
43.1857
43.1857
43.1859
43.1862
43.1863
43.1867
43.187
43.187
43.1873
43.1878
43.1881
43.1884
43.189
43.1896
43.1899
43.1904
43.191
43.1916
43.1921
43.1926
43.1935
43.1941
43.195
43.1954
43.1961
43.1973
43.1977
43.1984
43.1997
43.2002
43.2007
43.202
43.2029
43.2035
25.7171
25.7261
43.189
43.189
43.1891
43.1891
43.1891
43.1891
43.1891
43.1891
43.1891
43.189
43.189
43.1891
43.1891
43.1891
43.1894
43.1896
43.1896
43.1899
43.1905
43.1908
43.1912
43.1918
43.192
43.1923
43.1928
43.1935
43.1941
43.1948
43.1955
43.1963
43.1969
43.1974
43.1981
43.1986
43.1995
43.2002
43.201
43.2018
43.2025
43.2034
43.2042
43.2048
43.2057
25.7159
25.7243
43.1923
43.1923
43.1922
43.1922
43.1922
43.1922
43.1922
43.1922
43.1922
43.1923
43.1924
43.1923
43.1922
43.1922
43.1925
43.1927
43.1927
43.1931
43.1934
43.1936
43.1942
43.1945
43.1948
43.1955
43.1957
43.1962
43.1968
43.1974
43.1981
43.1986
43.1992
43.1999
43.2004
43.201
43.2015
43.2021
43.2031
43.2037
43.2045
43.2053
43.2059
43.2066
43.2074
25.7149
25.7227
43.1946
43.1944
43.1945
43.1945
43.1945
43.1945
43.1945
43.1945
43.1945
43.1944
43.1943
43.1947
43.1951
43.195
43.1951
43.1954
43.1954
43.1954
43.1958
43.1964
43.1966
43.1967
43.1973
43.1977
43.1979
43.1984
43.199
43.1997
43.2002
43.2007
43.2013
43.2019
43.2026
43.2032
43.2037
43.2043
43.2049
43.2054
43.2062
43.2069
43.2075
43.2081
43.209
25.7139
25.7211
43.1977
43.1974
43.1974
43.1974
43.1974
43.1974
43.1974
43.1974
43.1974
43.1974
43.1974
43.1977
43.198
43.1981
43.1982
43.1982
43.1981
43.198
43.1985
43.1991
43.199
43.1989
43.1996
43.2003
43.2002
43.2007
43.2013
43.2018
43.2025
43.2028
43.2034
43.2039
43.2045
43.2051
43.2057
43.2062
43.2068
43.2075
43.2081
43.2087
43.2092
43.2098
43.2107
25.7129
25.7197
43.2001
43.2001
43.2001
43.2001
43.2001
43.2001
43.2001
43.2001
43.2001
43.2001
43.2001
43.2001
43.2001
43.2001
43.2001
43.2001
43.2002
43.2006
43.201
43.2013
43.2015
43.2016
43.2021
43.2026
43.2027
43.2033
43.2039
43.2042
43.2047
43.205
43.2057
43.2063
43.2068
43.2074
43.2077
43.2083
43.2089
43.2095
43.21
43.2106
43.2112
43.2118
43.2123
25.7118
25.7184
43.2028
43.2028
43.2028
43.2028
43.2028
43.2028
43.2028
43.2028
43.2028
43.2028
43.2028
43.2028
43.2028
43.2028
43.2028
43.2027
43.2026
43.2032
43.2039
43.204
43.204
43.2039
43.2044
43.2051
43.205
43.2056
43.2063
43.2062
43.2067
43.2074
43.2076
43.2082
43.2088
43.2093
43.2097
43.21
43.2106
43.2112
43.2118
43.2123
43.2129
43.2135
43.2141
25.7111
25.717
43.2048
43.2047
43.2047
43.2047
43.2047
43.2047
43.2047
43.2047
43.2047
43.2047
43.2047
43.2047
43.2047
43.2047
43.2047
43.2048
43.2049
43.2052
43.2058
43.206
43.2059
43.206
43.2063
43.2068
43.2071
43.2075
43.2081
43.2084
43.2087
43.2092
43.2095
43.2098
43.2104
43.211
43.2116
43.2118
43.2121
43.2127
43.2133
43.2139
43.2144
43.215
43.2156
25.71
25.7156
43.2073
43.2074
43.2074
43.2074
43.2074
43.2074
43.2074
43.2074
43.2074
43.2074
43.2074
43.2074
43.2074
43.2074
43.2074
43.2074
43.2074
43.2073
43.2075
43.2082
43.2086
43.2086
43.2085
43.2088
43.2095
43.2097
43.2099
43.2105
43.2109
43.2111
43.2117
43.2121
43.2123
43.2129
43.2135
43.2138
43.2141
43.2147
43.2152
43.2159
43.2165
43.2171
43.2174
25.7091
25.7143
43.209
43.209
43.209
43.209
43.209
43.209
43.209
43.209
43.209
43.209
43.209
43.209
43.209
43.2092
43.2095
43.2094
43.2093
43.2094
43.2095
43.2098
43.2101
43.2103
43.2106
43.2107
43.211
43.2116
43.2118
43.2121
43.2124
43.2127
43.2133
43.2136
43.2139
43.2144
43.2147
43.215
43.2156
43.2162
43.2168
43.2171
43.2176
43.2182
43.2185
25.7084
25.7133
43.2107
43.2107
43.2107
43.2107
43.2107
43.2107
43.2107
43.2107
43.2107
43.2107
43.2107
43.2107
43.2106
43.2108
43.2111
43.2112
43.2113
43.2116
43.2118
43.2118
43.2118
43.2121
43.2124
43.2127
43.213
43.2132
43.2135
43.2139
43.2142
43.2144
43.215
43.2153
43.2156
43.2162
43.2165
43.2168
43.2173
43.218
43.2183
43.2185
43.2192
43.2198
43.2203
25.7078
25.712
43.2131
43.213
43.213
43.213
43.213
43.213
43.213
43.213
43.213
43.213
43.213
43.213
43.2131
43.2132
43.2132
43.2132
43.2132
43.2135
43.2138
43.2138
43.214
43.2143
43.2144
43.2147
43.2149
43.2152
43.2155
43.2158
43.2161
43.2164
43.217
43.2173
43.2177
43.2182
43.2184
43.2188
43.2194
43.2196
43.22
43.2205
43.2207
43.2213
43.2219
25.7067
25.7108
43.2146
43.2147
43.2147
43.2147
43.2147
43.2147
43.2147
43.2147
43.2147
43.2147
43.2147
43.2147
43.2147
43.2147
43.2147
43.215
43.2153
43.2153
43.2153
43.2153
43.2156
43.2159
43.2162
43.2165
43.2165
43.2169
43.2172
43.2173
43.2176
43.218
43.2183
43.2185
43.2191
43.2194
43.2197
43.2202
43.2205
43.2208
43.2214
43.2217
43.222
43.2227
43.2229
25.706
25.7097
43.2167
43.2167
43.2167
43.2167
43.2167
43.2167
43.2167
43.2167
43.2167
43.2167
43.2167
43.2167
43.2167
43.2167
43.2167
43.217
43.2173
43.2173
43.2173
43.2173
43.2177
43.2179
43.2181
43.2184
43.2184
43.2187
43.219
43.2193
43.2196
43.2196
43.2199
43.2204
43.2207
43.2211
43.2217
43.2219
43.222
43.2226
43.223
43.2232
43.2237
43.2242
43.2243
25.705
25.7077
43.2208
43.2208
43.2208
43.2208
43.2208
43.2208
43.2208
43.2208
43.2208
43.2208
43.2208
43.2208
43.2208
43.2208
43.2207
43.2206
43.2206
43.2206
43.2209
43.2212
43.2215
43.2219
43.222
43.2219
43.2218
43.2224
43.223
43.2232
43.2232
43.223
43.2236
43.2243
43.2243
43.2245
43.2248
43.2252
43.2255
43.2258
43.2263
43.2266
43.2269
43.2272
43.2275
25.7029
25.6903
43.2499
43.2499
43.2499
43.2499
43.2499
43.2499
43.2499
43.2499
43.2499
43.2499
43.2499
43.2499
43.2499
43.2499
43.25
43.2501
43.2501
43.2501
43.2504
43.2506
43.2506
43.2506
43.2506
43.2507
43.2509
43.2511
43.2514
43.2514
43.2514
43.2515
43.2519
43.2522
43.2522
43.2523
43.2524
43.2527
43.253
43.2531
43.2535
43.2538
43.2539
43.254
43.2543
25.6875
25.7282
43.1866
43.1866
43.1866
43.1866
43.1866
43.1866
43.1866
43.1866
43.1866
43.1866
43.1866
43.1866
43.1867
43.1871
43.1878
43.1882
43.1885
43.1893
43.1901
43.1909
43.1924
43.1939
43.1967
43.2002
43.2067
43.2119
43.215
43.2168
43.2178
43.219
43.22
43.2211
43.2224
43.2233
43.2245
43.2255
43.2268
43.228
43.2289
43.2296
43.2311
43.2323
43.2405
25.6341
25.7693
43.1173
43.1173
43.1173
43.1173
43.1173
43.1173
43.1173
43.1173
43.1173
43.1173
43.1173
43.1176
43.1179
43.1185
43.1194
43.12
43.121
43.1222
43.1236
43.1255
43.1293
43.1351
43.1426
43.1483
43.158
43.163
43.1643
43.1662
43.1679
43.1698
43.1714
43.1732
43.1756
43.1769
43.1788
43.1805
43.1828
43.1844
43.186
43.1874
43.1897
43.1916
43.2035
25.6147
25.7766
43.1057
43.1056
43.1056
43.1056
43.1056
43.1056
43.1056
43.1056
43.1056
43.1056
43.1057
43.1061
43.1066
43.1074
43.1081
43.1087
43.1101
43.1116
43.1135
43.1174
43.125
43.1355
43.1443
43.148
43.1529
43.1552
43.1567
43.1588
43.1609
43.1628
43.1643
43.1667
43.1691
43.1711
43.173
43.175
43.1769
43.1789
43.181
43.1822
43.1849
43.1868
43.1991
25.6139
25.7812
43.0982
43.0986
43.0986
43.0986
43.0986
43.0986
43.0986
43.0986
43.0986
43.0986
43.0985
43.0984
43.099
43.0999
43.1004
43.1013
43.103
43.1052
43.1089
43.1171
43.1288
43.1386
43.1443
43.1462
43.1481
43.1503
43.1525
43.1543
43.1567
43.1584
43.1602
43.1633
43.1653
43.1677
43.1696
43.172
43.1739
43.1763
43.1784
43.1796
43.1825
43.1843
43.1972
25.6129
25.7856
43.0907
43.0909
43.0909
43.0909
43.0909
43.0909
43.0909
43.0909
43.0909
43.0909
43.091
43.0911
43.0917
43.0925
43.0934
43.0946
43.0963
43.1001
43.1092
43.1207
43.132
43.1374
43.14
43.1418
43.1437
43.1461
43.1483
43.1508
43.1529
43.155
43.157
43.1598
43.1623
43.1649
43.1674
43.1698
43.172
43.1744
43.1767
43.1777
43.1802
43.1826
43.1959
25.6122
25.7904
43.0826
43.0827
43.0827
43.0827
43.0827
43.0827
43.0827
43.0827
43.0827
43.0827
43.0826
43.0826
43.0833
43.0845
43.0856
43.0872
43.0896
43.0969
43.112
43.1216
43.1297
43.1323
43.1344
43.1364
43.1389
43.1413
43.1436
43.1464
43.1488
43.1511
43.1531
43.1562
43.1592
43.1618
43.1643
43.1664
43.169
43.1716
43.1741
43.1759
43.1782
43.1807
43.1939
25.6112
25.7954
43.0747
43.0746
43.0746
43.0746
43.0746
43.0746
43.0746
43.0746
43.0746
43.0747
43.0748
43.0747
43.0753
43.0766
43.078
43.0801
43.0847
43.0964
43.113
43.1199
43.1252
43.1269
43.1293
43.1318
43.1345
43.1367
43.1396
43.1425
43.1453
43.148
43.1502
43.1535
43.1561
43.1588
43.1614
43.1637
43.1667
43.1697
43.172
43.1742
43.1767
43.1792
43.1925
25.611
25.8002
43.0661
43.0665
43.0665
43.0665
43.0665
43.0665
43.0665
43.0665
43.0665
43.0664
43.0663
43.0664
43.067
43.0681
43.0701
43.0738
43.0826
43.0981
43.112
43.1166
43.1191
43.1209
43.1238
43.1265
43.1296
43.1321
43.135
43.1381
43.1414
43.1441
43.1467
43.1502
43.1526
43.1557
43.1587
43.1614
43.1642
43.1671
43.1695
43.1715
43.1742
43.1769
43.1905
25.6105
25.8053
43.0576
43.0581
43.0584
43.0584
43.0584
43.0584
43.0584
43.0584
43.0584
43.0584
43.0585
43.0585
43.059
43.0605
43.0627
43.0684
43.0819
43.0986
43.1077
43.1109
43.1132
43.1158
43.119
43.1219
43.1252
43.1279
43.1312
43.1345
43.1381
43.1407
43.1437
43.1471
43.1502
43.1532
43.1563
43.1592
43.1622
43.1648
43.1676
43.17
43.1726
43.1752
43.1892
25.6097
25.81
43.049
43.0497
43.0502
43.0502
43.0502
43.0502
43.0502
43.0502
43.0502
43.0502
43.0501
43.0501
43.0508
43.0527
43.0565
43.0661
43.0831
43.0973
43.1032
43.1058
43.1077
43.1104
43.1139
43.1174
43.1206
43.1236
43.1274
43.1305
43.1343
43.1374
43.1406
43.1442
43.1477
43.1502
43.1538
43.1568
43.1599
43.1627
43.1658
43.168
43.1708
43.1736
43.1879
25.6088
25.8148
43.0417
43.042
43.0423
43.0423
43.0423
43.0423
43.0423
43.0423
43.0423
43.0423
43.0423
43.0426
43.0435
43.0457
43.052
43.0662
43.084
43.0938
43.0977
43.1004
43.1028
43.1058
43.1093
43.1129
43.1166
43.1205
43.1242
43.1275
43.1311
43.1344
43.138
43.142
43.1453
43.148
43.1516
43.1551
43.1584
43.1612
43.1642
43.1665
43.1697
43.1728
43.187
25.6084
25.8194
43.0344
43.0347
43.0347
43.0347
43.0347
43.0346
43.0346
43.0347
43.0347
43.0346
43.0347
43.0353
43.0364
43.0402
43.0505
43.0686
43.0841
43.09
43.0925
43.0953
43.0984
43.1013
43.105
43.1085
43.1126
43.1167
43.1203
43.1241
43.1281
43.1314
43.1352
43.1396
43.143
43.146
43.1496
43.1531
43.1565
43.1591
43.1627
43.1652
43.1684
43.1711
43.1854
25.608
25.8234
43.0276
43.0279
43.0279
43.0279
43.0279
43.0279
43.0279
43.0279
43.0279
43.0279
43.0282
43.029
43.03
43.0354
43.0495
43.07
43.0811
43.0846
43.0874
43.0908
43.0943
43.0976
43.1018
43.1054
43.1097
43.1138
43.1176
43.1217
43.1257
43.1294
43.1333
43.1374
43.1411
43.1444
43.1481
43.1514
43.1549
43.1578
43.1616
43.1642
43.1673
43.1702
43.1847
25.6076
25.8268
43.0217
43.022
43.0223
43.0223
43.0223
43.0223
43.0223
43.0223
43.0223
43.0223
43.0226
43.0233
43.0245
43.0301
43.0458
43.0672
43.0768
43.0803
43.0835
43.0869
43.0905
43.0943
43.0987
43.1026
43.1067
43.1113
43.1153
43.1192
43.1238
43.1277
43.1313
43.1354
43.1394
43.1427
43.1462
43.1497
43.1535
43.1567
43.1605
43.1629
43.1662
43.1692
43.1838
25.6076
25.8294
43.0173
43.0176
43.0179
43.0179
43.0179
43.0179
43.0179
43.0179
43.0179
43.0179
43.0182
43.0191
43.0206
43.0267
43.0444
43.0643
43.0735
43.0771
43.0805
43.084
43.0881
43.0918
43.0962
43.1004
43.1048
43.1092
43.1134
43.1175
43.1222
43.1262
43.1297
43.1341
43.1382
43.1417
43.1454
43.1492
43.1529
43.1561
43.1593
43.1621
43.1653
43.1684
43.1833
25.6072
25.8324
43.0132
43.0131
43.0131
43.0131
43.0131
43.0131
43.0131
43.0131
43.0131
43.0131
43.0137
43.0149
43.017
43.0266
43.05
43.066
43.0725
43.0749
43.0781
43.082
43.086
43.0898
43.094
43.0986
43.1033
43.1076
43.112
43.1163
43.1204
43.1249
43.1286
43.1328
43.137
43.1408
43.1449
43.1488
43.1521
43.1554
43.1586
43.1615
43.1647
43.168
43.1828
25.6064
25.8438
42.9951
42.9952
42.9952
42.9952
42.9952
42.9952
42.9952
42.9952
42.9952
42.9952
42.9958
42.9969
43.0003
43.0139
43.0459
43.0603
43.067
43.0703
43.0736
43.0777
43.082
43.0857
43.09
43.0946
43.0992
43.1041
43.1083
43.1129
43.1174
43.1218
43.1257
43.1302
43.1341
43.1381
43.1423
43.146
43.1492
43.1528
43.1566
43.1591
43.1627
43.1659
43.18
25.6045
25.827
43.0365
43.0375
43.0375
43.0375
43.0375
43.0375
43.0375
43.0375
43.0378
43.0381